+ 0.158044 6 0 tcp 40 ------- 0 6.12 9.29 0 0
- 0.158044 6 0 tcp 40 ------- 0 6.12 9.29 0 0
r 0.159764 6 0 tcp 40 ------- 0 6.12 9.29 0 0
+ 0.159764 0 1 tcp 40 ------- 0 6.12 9.29 0 0
- 0.159764 0 1 tcp 40 ------- 0 6.12 9.29 0 0
r 0.161823 0 1 tcp 40 ------- 0 6.12 9.29 0 0
+ 0.161823 1 9 tcp 40 ------- 0 6.12 9.29 0 0
- 0.161823 1 9 tcp 40 ------- 0 6.12 9.29 0 0
r 0.164596 1 9 tcp 40 ------- 0 6.12 9.29 0 0
+ 0.164596 9 1 ack 40 ------- 0 9.29 6.12 0 1
- 0.164596 9 1 ack 40 ------- 0 9.29 6.12 0 1
r 0.167368 9 1 ack 40 ------- 0 9.29 6.12 0 1
+ 0.167368 1 0 ack 40 ------- 0 9.29 6.12 0 1
- 0.167368 1 0 ack 40 ------- 0 9.29 6.12 0 1
r 0.169427 1 0 ack 40 ------- 0 9.29 6.12 0 1
+ 0.169427 0 6 ack 40 ------- 0 9.29 6.12 0 1
- 0.169427 0 6 ack 40 ------- 0 9.29 6.12 0 1
r 0.171147 0 6 ack 40 ------- 0 9.29 6.12 0 1
+ 0.171147 6 0 tcp 1540 ------- 0 6.12 9.29 1 2
- 0.171147 6 0 tcp 1540 ------- 0 6.12 9.29 1 2
+ 0.171147 6 0 tcp 1540 ------- 0 6.12 9.29 2 3
- 0.17123 6 0 tcp 1540 ------- 0 6.12 9.29 2 3
r 0.172948 6 0 tcp 1540 ------- 0 6.12 9.29 1 2
+ 0.172948 0 1 tcp 1540 ------- 0 6.12 9.29 1 2
- 0.172948 0 1 tcp 1540 ------- 0 6.12 9.29 1 2
r 0.17303 6 0 tcp 1540 ------- 0 6.12 9.29 2 3
+ 0.17303 0 1 tcp 1540 ------- 0 6.12 9.29 2 3
- 0.17303 0 1 tcp 1540 ------- 0 6.12 9.29 2 3
r 0.175008 0 1 tcp 1540 ------- 0 6.12 9.29 1 2
+ 0.175008 1 9 tcp 1540 ------- 0 6.12 9.29 1 2
- 0.175008 1 9 tcp 1540 ------- 0 6.12 9.29 1 2
r 0.17509 0 1 tcp 1540 ------- 0 6.12 9.29 2 3
+ 0.17509 1 9 tcp 1540 ------- 0 6.12 9.29 2 3
- 0.17509 1 9 tcp 1540 ------- 0 6.12 9.29 2 3
r 0.177785 1 9 tcp 1540 ------- 0 6.12 9.29 1 2
+ 0.177785 9 1 ack 40 ------- 0 9.29 6.12 1 4
- 0.177785 9 1 ack 40 ------- 0 9.29 6.12 1 4
r 0.177867 1 9 tcp 1540 ------- 0 6.12 9.29 2 3
+ 0.177867 9 1 ack 40 ------- 0 9.29 6.12 2 5
- 0.177867 9 1 ack 40 ------- 0 9.29 6.12 2 5
r 0.180558 9 1 ack 40 ------- 0 9.29 6.12 1 4
+ 0.180558 1 0 ack 40 ------- 0 9.29 6.12 1 4
- 0.180558 1 0 ack 40 ------- 0 9.29 6.12 1 4
r 0.18064 9 1 ack 40 ------- 0 9.29 6.12 2 5
+ 0.18064 1 0 ack 40 ------- 0 9.29 6.12 2 5
- 0.18064 1 0 ack 40 ------- 0 9.29 6.12 2 5
r 0.182616 1 0 ack 40 ------- 0 9.29 6.12 1 4
+ 0.182616 0 6 ack 40 ------- 0 9.29 6.12 1 4
- 0.182616 0 6 ack 40 ------- 0 9.29 6.12 1 4
r 0.182699 1 0 ack 40 ------- 0 9.29 6.12 2 5
+ 0.182699 0 6 ack 40 ------- 0 9.29 6.12 2 5
- 0.182699 0 6 ack 40 ------- 0 9.29 6.12 2 5
r 0.184337 0 6 ack 40 ------- 0 9.29 6.12 1 4
+ 0.184337 6 0 tcp 1540 ------- 0 6.12 9.29 3 6
- 0.184337 6 0 tcp 1540 ------- 0 6.12 9.29 3 6
+ 0.184337 6 0 tcp 1540 ------- 0 6.12 9.29 4 7
r 0.184419 0 6 ack 40 ------- 0 9.29 6.12 2 5
+ 0.184419 6 0 tcp 1540 ------- 0 6.12 9.29 5 8
+ 0.184419 6 0 tcp 1540 ------- 0 6.12 9.29 6 9
- 0.184419 6 0 tcp 1540 ------- 0 6.12 9.29 4 7
- 0.184502 6 0 tcp 1540 ------- 0 6.12 9.29 5 8
- 0.184584 6 0 tcp 1540 ------- 0 6.12 9.29 6 9
r 0.186138 6 0 tcp 1540 ------- 0 6.12 9.29 3 6
+ 0.186138 0 1 tcp 1540 ------- 0 6.12 9.29 3 6
- 0.186138 0 1 tcp 1540 ------- 0 6.12 9.29 3 6
r 0.18622 6 0 tcp 1540 ------- 0 6.12 9.29 4 7
+ 0.18622 0 1 tcp 1540 ------- 0 6.12 9.29 4 7
- 0.18622 0 1 tcp 1540 ------- 0 6.12 9.29 4 7
r 0.186302 6 0 tcp 1540 ------- 0 6.12 9.29 5 8
+ 0.186302 0 1 tcp 1540 ------- 0 6.12 9.29 5 8
- 0.186302 0 1 tcp 1540 ------- 0 6.12 9.29 5 8
r 0.186384 6 0 tcp 1540 ------- 0 6.12 9.29 6 9
+ 0.186384 0 1 tcp 1540 ------- 0 6.12 9.29 6 9
- 0.186384 0 1 tcp 1540 ------- 0 6.12 9.29 6 9
r 0.188198 0 1 tcp 1540 ------- 0 6.12 9.29 3 6
+ 0.188198 1 9 tcp 1540 ------- 0 6.12 9.29 3 6
- 0.188198 1 9 tcp 1540 ------- 0 6.12 9.29 3 6
r 0.18828 0 1 tcp 1540 ------- 0 6.12 9.29 4 7
+ 0.18828 1 9 tcp 1540 ------- 0 6.12 9.29 4 7
- 0.18828 1 9 tcp 1540 ------- 0 6.12 9.29 4 7
r 0.188362 0 1 tcp 1540 ------- 0 6.12 9.29 5 8
+ 0.188362 1 9 tcp 1540 ------- 0 6.12 9.29 5 8
- 0.188362 1 9 tcp 1540 ------- 0 6.12 9.29 5 8
r 0.188444 0 1 tcp 1540 ------- 0 6.12 9.29 6 9
+ 0.188444 1 9 tcp 1540 ------- 0 6.12 9.29 6 9
- 0.188444 1 9 tcp 1540 ------- 0 6.12 9.29 6 9
r 0.190975 1 9 tcp 1540 ------- 0 6.12 9.29 3 6
+ 0.190975 9 1 ack 40 ------- 0 9.29 6.12 3 10
- 0.190975 9 1 ack 40 ------- 0 9.29 6.12 3 10
r 0.191057 1 9 tcp 1540 ------- 0 6.12 9.29 4 7
+ 0.191057 9 1 ack 40 ------- 0 9.29 6.12 4 11
- 0.191057 9 1 ack 40 ------- 0 9.29 6.12 4 11
r 0.191139 1 9 tcp 1540 ------- 0 6.12 9.29 5 8
+ 0.191139 9 1 ack 40 ------- 0 9.29 6.12 5 12
- 0.191139 9 1 ack 40 ------- 0 9.29 6.12 5 12
r 0.191222 1 9 tcp 1540 ------- 0 6.12 9.29 6 9
+ 0.191222 9 1 ack 40 ------- 0 9.29 6.12 6 13
- 0.191222 9 1 ack 40 ------- 0 9.29 6.12 6 13
r 0.193748 9 1 ack 40 ------- 0 9.29 6.12 3 10
+ 0.193748 1 0 ack 40 ------- 0 9.29 6.12 3 10
- 0.193748 1 0 ack 40 ------- 0 9.29 6.12 3 10
r 0.19383 9 1 ack 40 ------- 0 9.29 6.12 4 11
+ 0.19383 1 0 ack 40 ------- 0 9.29 6.12 4 11
- 0.19383 1 0 ack 40 ------- 0 9.29 6.12 4 11
r 0.193912 9 1 ack 40 ------- 0 9.29 6.12 5 12
+ 0.193912 1 0 ack 40 ------- 0 9.29 6.12 5 12
- 0.193912 1 0 ack 40 ------- 0 9.29 6.12 5 12
r 0.193994 9 1 ack 40 ------- 0 9.29 6.12 6 13
+ 0.193994 1 0 ack 40 ------- 0 9.29 6.12 6 13
- 0.193994 1 0 ack 40 ------- 0 9.29 6.12 6 13
r 0.195806 1 0 ack 40 ------- 0 9.29 6.12 3 10
+ 0.195806 0 6 ack 40 ------- 0 9.29 6.12 3 10
- 0.195806 0 6 ack 40 ------- 0 9.29 6.12 3 10
r 0.195888 1 0 ack 40 ------- 0 9.29 6.12 4 11
+ 0.195888 0 6 ack 40 ------- 0 9.29 6.12 4 11
- 0.195888 0 6 ack 40 ------- 0 9.29 6.12 4 11
r 0.195971 1 0 ack 40 ------- 0 9.29 6.12 5 12
+ 0.195971 0 6 ack 40 ------- 0 9.29 6.12 5 12
- 0.195971 0 6 ack 40 ------- 0 9.29 6.12 5 12
r 0.196053 1 0 ack 40 ------- 0 9.29 6.12 6 13
+ 0.196053 0 6 ack 40 ------- 0 9.29 6.12 6 13
- 0.196053 0 6 ack 40 ------- 0 9.29 6.12 6 13
r 0.197527 0 6 ack 40 ------- 0 9.29 6.12 3 10
r 0.197609 0 6 ack 40 ------- 0 9.29 6.12 4 11
r 0.197691 0 6 ack 40 ------- 0 9.29 6.12 5 12
r 0.197773 0 6 ack 40 ------- 0 9.29 6.12 6 13
+ 0.224553 2 0 tcp 40 ------- 0 2.24 3.7 0 14
- 0.224553 2 0 tcp 40 ------- 0 2.24 3.7 0 14
r 0.23086 2 0 tcp 40 ------- 0 2.24 3.7 0 14
+ 0.23086 0 3 tcp 40 ------- 0 2.24 3.7 0 14
- 0.23086 0 3 tcp 40 ------- 0 2.24 3.7 0 14
r 0.233315 0 3 tcp 40 ------- 0 2.24 3.7 0 14
+ 0.233315 3 0 ack 40 ------- 0 3.7 2.24 0 15
- 0.233315 3 0 ack 40 ------- 0 3.7 2.24 0 15
r 0.235769 3 0 ack 40 ------- 0 3.7 2.24 0 15
+ 0.235769 0 2 ack 40 ------- 0 3.7 2.24 0 15
- 0.235769 0 2 ack 40 ------- 0 3.7 2.24 0 15
r 0.242077 0 2 ack 40 ------- 0 3.7 2.24 0 15
+ 0.242077 2 0 tcp 1540 ------- 0 2.24 3.7 1 16
- 0.242077 2 0 tcp 1540 ------- 0 2.24 3.7 1 16
+ 0.242077 2 0 tcp 1540 ------- 0 2.24 3.7 2 17
- 0.242078 2 0 tcp 1540 ------- 0 2.24 3.7 2 17
r 0.248386 2 0 tcp 1540 ------- 0 2.24 3.7 1 16
+ 0.248386 0 3 tcp 1540 ------- 0 2.24 3.7 1 16
- 0.248386 0 3 tcp 1540 ------- 0 2.24 3.7 1 16
r 0.248387 2 0 tcp 1540 ------- 0 2.24 3.7 2 17
+ 0.248387 0 3 tcp 1540 ------- 0 2.24 3.7 2 17
- 0.248387 0 3 tcp 1540 ------- 0 2.24 3.7 2 17
r 0.250842 0 3 tcp 1540 ------- 0 2.24 3.7 1 16
+ 0.250842 3 0 ack 40 ------- 0 3.7 2.24 1 18
- 0.250842 3 0 ack 40 ------- 0 3.7 2.24 1 18
r 0.250843 0 3 tcp 1540 ------- 0 2.24 3.7 2 17
+ 0.250843 3 0 ack 40 ------- 0 3.7 2.24 2 19
- 0.250843 3 0 ack 40 ------- 0 3.7 2.24 2 19
r 0.253296 3 0 ack 40 ------- 0 3.7 2.24 1 18
+ 0.253296 0 2 ack 40 ------- 0 3.7 2.24 1 18
- 0.253296 0 2 ack 40 ------- 0 3.7 2.24 1 18
r 0.253298 3 0 ack 40 ------- 0 3.7 2.24 2 19
+ 0.253298 0 2 ack 40 ------- 0 3.7 2.24 2 19
- 0.253298 0 2 ack 40 ------- 0 3.7 2.24 2 19
r 0.259604 0 2 ack 40 ------- 0 3.7 2.24 1 18
+ 0.259604 2 0 tcp 1540 ------- 0 2.24 3.7 3 20
- 0.259604 2 0 tcp 1540 ------- 0 2.24 3.7 3 20
+ 0.259604 2 0 tcp 1540 ------- 0 2.24 3.7 4 21
r 0.259605 0 2 ack 40 ------- 0 3.7 2.24 2 19
+ 0.259605 2 0 tcp 1540 ------- 0 2.24 3.7 5 22
+ 0.259605 2 0 tcp 1540 ------- 0 2.24 3.7 6 23
- 0.259605 2 0 tcp 1540 ------- 0 2.24 3.7 4 21
- 0.259607 2 0 tcp 1540 ------- 0 2.24 3.7 5 22
- 0.259608 2 0 tcp 1540 ------- 0 2.24 3.7 6 23
r 0.265913 2 0 tcp 1540 ------- 0 2.24 3.7 3 20
+ 0.265913 0 3 tcp 1540 ------- 0 2.24 3.7 3 20
- 0.265913 0 3 tcp 1540 ------- 0 2.24 3.7 3 20
r 0.265914 2 0 tcp 1540 ------- 0 2.24 3.7 4 21
+ 0.265914 0 3 tcp 1540 ------- 0 2.24 3.7 4 21
- 0.265914 0 3 tcp 1540 ------- 0 2.24 3.7 4 21
r 0.265916 2 0 tcp 1540 ------- 0 2.24 3.7 5 22
+ 0.265916 0 3 tcp 1540 ------- 0 2.24 3.7 5 22
- 0.265916 0 3 tcp 1540 ------- 0 2.24 3.7 5 22
r 0.265917 2 0 tcp 1540 ------- 0 2.24 3.7 6 23
+ 0.265917 0 3 tcp 1540 ------- 0 2.24 3.7 6 23
- 0.265917 0 3 tcp 1540 ------- 0 2.24 3.7 6 23
r 0.268369 0 3 tcp 1540 ------- 0 2.24 3.7 3 20
+ 0.268369 3 0 ack 40 ------- 0 3.7 2.24 3 24
- 0.268369 3 0 ack 40 ------- 0 3.7 2.24 3 24
r 0.26837 0 3 tcp 1540 ------- 0 2.24 3.7 4 21
+ 0.26837 3 0 ack 40 ------- 0 3.7 2.24 4 25
- 0.26837 3 0 ack 40 ------- 0 3.7 2.24 4 25
r 0.268371 0 3 tcp 1540 ------- 0 2.24 3.7 5 22
+ 0.268371 3 0 ack 40 ------- 0 3.7 2.24 5 26
- 0.268371 3 0 ack 40 ------- 0 3.7 2.24 5 26
r 0.268373 0 3 tcp 1540 ------- 0 2.24 3.7 6 23
+ 0.268373 3 0 ack 40 ------- 0 3.7 2.24 6 27
- 0.268373 3 0 ack 40 ------- 0 3.7 2.24 6 27
r 0.270823 3 0 ack 40 ------- 0 3.7 2.24 3 24
+ 0.270823 0 2 ack 40 ------- 0 3.7 2.24 3 24
- 0.270823 0 2 ack 40 ------- 0 3.7 2.24 3 24
r 0.270825 3 0 ack 40 ------- 0 3.7 2.24 4 25
+ 0.270825 0 2 ack 40 ------- 0 3.7 2.24 4 25
- 0.270825 0 2 ack 40 ------- 0 3.7 2.24 4 25
r 0.270826 3 0 ack 40 ------- 0 3.7 2.24 5 26
+ 0.270826 0 2 ack 40 ------- 0 3.7 2.24 5 26
- 0.270826 0 2 ack 40 ------- 0 3.7 2.24 5 26
r 0.270827 3 0 ack 40 ------- 0 3.7 2.24 6 27
+ 0.270827 0 2 ack 40 ------- 0 3.7 2.24 6 27
- 0.270827 0 2 ack 40 ------- 0 3.7 2.24 6 27
r 0.277131 0 2 ack 40 ------- 0 3.7 2.24 3 24
r 0.277132 0 2 ack 40 ------- 0 3.7 2.24 4 25
r 0.277134 0 2 ack 40 ------- 0 3.7 2.24 5 26
r 0.277135 0 2 ack 40 ------- 0 3.7 2.24 6 27
+ 1.536157 8 1 tcp 40 ------- 0 8.15 5.33 0 28
- 1.536157 8 1 tcp 40 ------- 0 8.15 5.33 0 28
r 1.545662 8 1 tcp 40 ------- 0 8.15 5.33 0 28
+ 1.545662 1 0 tcp 40 ------- 0 8.15 5.33 0 28
- 1.545662 1 0 tcp 40 ------- 0 8.15 5.33 0 28
r 1.547721 1 0 tcp 40 ------- 0 8.15 5.33 0 28
+ 1.547721 0 5 tcp 40 ------- 0 8.15 5.33 0 28
- 1.547721 0 5 tcp 40 ------- 0 8.15 5.33 0 28
r 1.549301 0 5 tcp 40 ------- 0 8.15 5.33 0 28
+ 1.549301 5 0 ack 40 ------- 0 5.33 8.15 0 29
- 1.549301 5 0 ack 40 ------- 0 5.33 8.15 0 29
r 1.550881 5 0 ack 40 ------- 0 5.33 8.15 0 29
+ 1.550881 0 1 ack 40 ------- 0 5.33 8.15 0 29
- 1.550881 0 1 ack 40 ------- 0 5.33 8.15 0 29
r 1.552939 0 1 ack 40 ------- 0 5.33 8.15 0 29
+ 1.552939 1 8 ack 40 ------- 0 5.33 8.15 0 29
- 1.552939 1 8 ack 40 ------- 0 5.33 8.15 0 29
r 1.562445 1 8 ack 40 ------- 0 5.33 8.15 0 29
+ 1.562445 8 1 tcp 1540 ------- 0 8.15 5.33 1 30
- 1.562445 8 1 tcp 1540 ------- 0 8.15 5.33 1 30
+ 1.562445 8 1 tcp 1540 ------- 0 8.15 5.33 2 31
- 1.562449 8 1 tcp 1540 ------- 0 8.15 5.33 2 31
r 1.571955 8 1 tcp 1540 ------- 0 8.15 5.33 1 30
+ 1.571955 1 0 tcp 1540 ------- 0 8.15 5.33 1 30
- 1.571955 1 0 tcp 1540 ------- 0 8.15 5.33 1 30
r 1.57196 8 1 tcp 1540 ------- 0 8.15 5.33 2 31
+ 1.57196 1 0 tcp 1540 ------- 0 8.15 5.33 2 31
- 1.57196 1 0 tcp 1540 ------- 0 8.15 5.33 2 31
r 1.574015 1 0 tcp 1540 ------- 0 8.15 5.33 1 30
+ 1.574015 0 5 tcp 1540 ------- 0 8.15 5.33 1 30
- 1.574015 0 5 tcp 1540 ------- 0 8.15 5.33 1 30
r 1.574019 1 0 tcp 1540 ------- 0 8.15 5.33 2 31
+ 1.574019 0 5 tcp 1540 ------- 0 8.15 5.33 2 31
- 1.574019 0 5 tcp 1540 ------- 0 8.15 5.33 2 31
r 1.575599 0 5 tcp 1540 ------- 0 8.15 5.33 1 30
+ 1.575599 5 0 ack 40 ------- 0 5.33 8.15 1 32
- 1.575599 5 0 ack 40 ------- 0 5.33 8.15 1 32
r 1.575604 0 5 tcp 1540 ------- 0 8.15 5.33 2 31
+ 1.575604 5 0 ack 40 ------- 0 5.33 8.15 2 33
- 1.575604 5 0 ack 40 ------- 0 5.33 8.15 2 33
r 1.577179 5 0 ack 40 ------- 0 5.33 8.15 1 32
+ 1.577179 0 1 ack 40 ------- 0 5.33 8.15 1 32
- 1.577179 0 1 ack 40 ------- 0 5.33 8.15 1 32
r 1.577184 5 0 ack 40 ------- 0 5.33 8.15 2 33
+ 1.577184 0 1 ack 40 ------- 0 5.33 8.15 2 33
- 1.577184 0 1 ack 40 ------- 0 5.33 8.15 2 33
r 1.579238 0 1 ack 40 ------- 0 5.33 8.15 1 32
+ 1.579238 1 8 ack 40 ------- 0 5.33 8.15 1 32
- 1.579238 1 8 ack 40 ------- 0 5.33 8.15 1 32
r 1.579243 0 1 ack 40 ------- 0 5.33 8.15 2 33
+ 1.579243 1 8 ack 40 ------- 0 5.33 8.15 2 33
- 1.579243 1 8 ack 40 ------- 0 5.33 8.15 2 33
r 1.588743 1 8 ack 40 ------- 0 5.33 8.15 1 32
+ 1.588743 8 1 tcp 1540 ------- 0 8.15 5.33 3 34
- 1.588743 8 1 tcp 1540 ------- 0 8.15 5.33 3 34
+ 1.588743 8 1 tcp 1540 ------- 0 8.15 5.33 4 35
r 1.588748 1 8 ack 40 ------- 0 5.33 8.15 2 33
+ 1.588748 8 1 tcp 1540 ------- 0 8.15 5.33 5 36
+ 1.588748 8 1 tcp 1540 ------- 0 8.15 5.33 6 37
- 1.588748 8 1 tcp 1540 ------- 0 8.15 5.33 4 35
- 1.588753 8 1 tcp 1540 ------- 0 8.15 5.33 5 36
- 1.588758 8 1 tcp 1540 ------- 0 8.15 5.33 6 37
r 1.598254 8 1 tcp 1540 ------- 0 8.15 5.33 3 34
+ 1.598254 1 0 tcp 1540 ------- 0 8.15 5.33 3 34
- 1.598254 1 0 tcp 1540 ------- 0 8.15 5.33 3 34
r 1.598259 8 1 tcp 1540 ------- 0 8.15 5.33 4 35
+ 1.598259 1 0 tcp 1540 ------- 0 8.15 5.33 4 35
- 1.598259 1 0 tcp 1540 ------- 0 8.15 5.33 4 35
r 1.598264 8 1 tcp 1540 ------- 0 8.15 5.33 5 36
+ 1.598264 1 0 tcp 1540 ------- 0 8.15 5.33 5 36
- 1.598264 1 0 tcp 1540 ------- 0 8.15 5.33 5 36
r 1.598268 8 1 tcp 1540 ------- 0 8.15 5.33 6 37
+ 1.598268 1 0 tcp 1540 ------- 0 8.15 5.33 6 37
- 1.598268 1 0 tcp 1540 ------- 0 8.15 5.33 6 37
r 1.600313 1 0 tcp 1540 ------- 0 8.15 5.33 3 34
+ 1.600313 0 5 tcp 1540 ------- 0 8.15 5.33 3 34
- 1.600313 0 5 tcp 1540 ------- 0 8.15 5.33 3 34
r 1.600318 1 0 tcp 1540 ------- 0 8.15 5.33 4 35
+ 1.600318 0 5 tcp 1540 ------- 0 8.15 5.33 4 35
- 1.600318 0 5 tcp 1540 ------- 0 8.15 5.33 4 35
r 1.600323 1 0 tcp 1540 ------- 0 8.15 5.33 5 36
+ 1.600323 0 5 tcp 1540 ------- 0 8.15 5.33 5 36
- 1.600323 0 5 tcp 1540 ------- 0 8.15 5.33 5 36
r 1.600328 1 0 tcp 1540 ------- 0 8.15 5.33 6 37
+ 1.600328 0 5 tcp 1540 ------- 0 8.15 5.33 6 37
- 1.600328 0 5 tcp 1540 ------- 0 8.15 5.33 6 37
r 1.601898 0 5 tcp 1540 ------- 0 8.15 5.33 3 34
+ 1.601898 5 0 ack 40 ------- 0 5.33 8.15 3 38
- 1.601898 5 0 ack 40 ------- 0 5.33 8.15 3 38
r 1.601903 0 5 tcp 1540 ------- 0 8.15 5.33 4 35
+ 1.601903 5 0 ack 40 ------- 0 5.33 8.15 4 39
- 1.601903 5 0 ack 40 ------- 0 5.33 8.15 4 39
r 1.601908 0 5 tcp 1540 ------- 0 8.15 5.33 5 36
+ 1.601908 5 0 ack 40 ------- 0 5.33 8.15 5 40
- 1.601908 5 0 ack 40 ------- 0 5.33 8.15 5 40
r 1.601913 0 5 tcp 1540 ------- 0 8.15 5.33 6 37
+ 1.601913 5 0 ack 40 ------- 0 5.33 8.15 6 41
- 1.601913 5 0 ack 40 ------- 0 5.33 8.15 6 41
r 1.603478 5 0 ack 40 ------- 0 5.33 8.15 3 38
+ 1.603478 0 1 ack 40 ------- 0 5.33 8.15 3 38
- 1.603478 0 1 ack 40 ------- 0 5.33 8.15 3 38
r 1.603483 5 0 ack 40 ------- 0 5.33 8.15 4 39
+ 1.603483 0 1 ack 40 ------- 0 5.33 8.15 4 39
- 1.603483 0 1 ack 40 ------- 0 5.33 8.15 4 39
r 1.603488 5 0 ack 40 ------- 0 5.33 8.15 5 40
+ 1.603488 0 1 ack 40 ------- 0 5.33 8.15 5 40
- 1.603488 0 1 ack 40 ------- 0 5.33 8.15 5 40
r 1.603493 5 0 ack 40 ------- 0 5.33 8.15 6 41
+ 1.603493 0 1 ack 40 ------- 0 5.33 8.15 6 41
- 1.603493 0 1 ack 40 ------- 0 5.33 8.15 6 41
r 1.605537 0 1 ack 40 ------- 0 5.33 8.15 3 38
+ 1.605537 1 8 ack 40 ------- 0 5.33 8.15 3 38
- 1.605537 1 8 ack 40 ------- 0 5.33 8.15 3 38
r 1.605542 0 1 ack 40 ------- 0 5.33 8.15 4 39
+ 1.605542 1 8 ack 40 ------- 0 5.33 8.15 4 39
- 1.605542 1 8 ack 40 ------- 0 5.33 8.15 4 39
r 1.605546 0 1 ack 40 ------- 0 5.33 8.15 5 40
+ 1.605546 1 8 ack 40 ------- 0 5.33 8.15 5 40
- 1.605546 1 8 ack 40 ------- 0 5.33 8.15 5 40
r 1.605551 0 1 ack 40 ------- 0 5.33 8.15 6 41
+ 1.605551 1 8 ack 40 ------- 0 5.33 8.15 6 41
- 1.605551 1 8 ack 40 ------- 0 5.33 8.15 6 41
r 1.615042 1 8 ack 40 ------- 0 5.33 8.15 3 38
r 1.615047 1 8 ack 40 ------- 0 5.33 8.15 4 39
r 1.615052 1 8 ack 40 ------- 0 5.33 8.15 5 40
r 1.615057 1 8 ack 40 ------- 0 5.33 8.15 6 41
+ 2.978278 4 11 tcp 40 ------- 0 4.30 18.12 0 42
- 2.978278 4 11 tcp 40 ------- 0 4.30 18.12 0 42
r 2.980738 4 11 tcp 40 ------- 0 4.30 18.12 0 42
+ 2.980738 11 17 tcp 40 ------- 0 4.30 18.12 0 42
- 2.980738 11 17 tcp 40 ------- 0 4.30 18.12 0 42
r 2.982476 11 17 tcp 40 ------- 0 4.30 18.12 0 42
+ 2.982476 17 18 tcp 40 ------- 0 4.30 18.12 0 42
- 2.982476 17 18 tcp 40 ------- 0 4.30 18.12 0 42
r 2.983457 17 18 tcp 40 ------- 0 4.30 18.12 0 42
+ 2.983457 18 17 ack 40 ------- 0 18.12 4.30 0 43
- 2.983457 18 17 ack 40 ------- 0 18.12 4.30 0 43
r 2.984438 18 17 ack 40 ------- 0 18.12 4.30 0 43
+ 2.984438 17 11 ack 40 ------- 0 18.12 4.30 0 43
- 2.984438 17 11 ack 40 ------- 0 18.12 4.30 0 43
r 2.986175 17 11 ack 40 ------- 0 18.12 4.30 0 43
+ 2.986175 11 4 ack 40 ------- 0 18.12 4.30 0 43
- 2.986175 11 4 ack 40 ------- 0 18.12 4.30 0 43
r 2.988635 11 4 ack 40 ------- 0 18.12 4.30 0 43
+ 2.988635 4 11 tcp 1540 ------- 0 4.30 18.12 1 44
- 2.988635 4 11 tcp 1540 ------- 0 4.30 18.12 1 44
+ 2.988635 4 11 tcp 1540 ------- 0 4.30 18.12 2 45
- 2.988637 4 11 tcp 1540 ------- 0 4.30 18.12 2 45
r 2.991097 4 11 tcp 1540 ------- 0 4.30 18.12 1 44
+ 2.991097 11 17 tcp 1540 ------- 0 4.30 18.12 1 44
- 2.991097 11 17 tcp 1540 ------- 0 4.30 18.12 1 44
r 2.991098 4 11 tcp 1540 ------- 0 4.30 18.12 2 45
+ 2.991098 11 17 tcp 1540 ------- 0 4.30 18.12 2 45
- 2.991102 11 17 tcp 1540 ------- 0 4.30 18.12 2 45
r 2.992839 11 17 tcp 1540 ------- 0 4.30 18.12 1 44
+ 2.992839 17 18 tcp 1540 ------- 0 4.30 18.12 1 44
- 2.992839 17 18 tcp 1540 ------- 0 4.30 18.12 1 44
r 2.992844 11 17 tcp 1540 ------- 0 4.30 18.12 2 45
+ 2.992844 17 18 tcp 1540 ------- 0 4.30 18.12 2 45
- 2.992844 17 18 tcp 1540 ------- 0 4.30 18.12 2 45
r 2.993825 17 18 tcp 1540 ------- 0 4.30 18.12 1 44
+ 2.993825 18 17 ack 40 ------- 0 18.12 4.30 1 46
- 2.993825 18 17 ack 40 ------- 0 18.12 4.30 1 46
r 2.99383 17 18 tcp 1540 ------- 0 4.30 18.12 2 45
+ 2.99383 18 17 ack 40 ------- 0 18.12 4.30 2 47
- 2.99383 18 17 ack 40 ------- 0 18.12 4.30 2 47
r 2.994806 18 17 ack 40 ------- 0 18.12 4.30 1 46
+ 2.994806 17 11 ack 40 ------- 0 18.12 4.30 1 46
- 2.994806 17 11 ack 40 ------- 0 18.12 4.30 1 46
r 2.994811 18 17 ack 40 ------- 0 18.12 4.30 2 47
+ 2.994811 17 11 ack 40 ------- 0 18.12 4.30 2 47
- 2.994811 17 11 ack 40 ------- 0 18.12 4.30 2 47
r 2.996543 17 11 ack 40 ------- 0 18.12 4.30 1 46
+ 2.996543 11 4 ack 40 ------- 0 18.12 4.30 1 46
- 2.996543 11 4 ack 40 ------- 0 18.12 4.30 1 46
r 2.996548 17 11 ack 40 ------- 0 18.12 4.30 2 47
+ 2.996548 11 4 ack 40 ------- 0 18.12 4.30 2 47
- 2.996548 11 4 ack 40 ------- 0 18.12 4.30 2 47
r 2.999003 11 4 ack 40 ------- 0 18.12 4.30 1 46
+ 2.999003 4 11 tcp 1540 ------- 0 4.30 18.12 3 48
- 2.999003 4 11 tcp 1540 ------- 0 4.30 18.12 3 48
+ 2.999003 4 11 tcp 1540 ------- 0 4.30 18.12 4 49
- 2.999005 4 11 tcp 1540 ------- 0 4.30 18.12 4 49
r 2.999008 11 4 ack 40 ------- 0 18.12 4.30 2 47
+ 2.999008 4 11 tcp 1540 ------- 0 4.30 18.12 5 50
- 2.999008 4 11 tcp 1540 ------- 0 4.30 18.12 5 50
+ 2.999008 4 11 tcp 1540 ------- 0 4.30 18.12 6 51
- 2.99901 4 11 tcp 1540 ------- 0 4.30 18.12 6 51
r 3.001465 4 11 tcp 1540 ------- 0 4.30 18.12 3 48
+ 3.001465 11 17 tcp 1540 ------- 0 4.30 18.12 3 48
- 3.001465 11 17 tcp 1540 ------- 0 4.30 18.12 3 48
r 3.001466 4 11 tcp 1540 ------- 0 4.30 18.12 4 49
+ 3.001466 11 17 tcp 1540 ------- 0 4.30 18.12 4 49
r 3.00147 4 11 tcp 1540 ------- 0 4.30 18.12 5 50
+ 3.00147 11 17 tcp 1540 ------- 0 4.30 18.12 5 50
- 3.00147 11 17 tcp 1540 ------- 0 4.30 18.12 4 49
r 3.001471 4 11 tcp 1540 ------- 0 4.30 18.12 6 51
+ 3.001471 11 17 tcp 1540 ------- 0 4.30 18.12 6 51
- 3.001475 11 17 tcp 1540 ------- 0 4.30 18.12 5 50
- 3.00148 11 17 tcp 1540 ------- 0 4.30 18.12 6 51
r 3.003207 11 17 tcp 1540 ------- 0 4.30 18.12 3 48
+ 3.003207 17 18 tcp 1540 ------- 0 4.30 18.12 3 48
- 3.003207 17 18 tcp 1540 ------- 0 4.30 18.12 3 48
r 3.003212 11 17 tcp 1540 ------- 0 4.30 18.12 4 49
+ 3.003212 17 18 tcp 1540 ------- 0 4.30 18.12 4 49
- 3.003212 17 18 tcp 1540 ------- 0 4.30 18.12 4 49
r 3.003217 11 17 tcp 1540 ------- 0 4.30 18.12 5 50
+ 3.003217 17 18 tcp 1540 ------- 0 4.30 18.12 5 50
- 3.003217 17 18 tcp 1540 ------- 0 4.30 18.12 5 50
r 3.003222 11 17 tcp 1540 ------- 0 4.30 18.12 6 51
+ 3.003222 17 18 tcp 1540 ------- 0 4.30 18.12 6 51
- 3.003222 17 18 tcp 1540 ------- 0 4.30 18.12 6 51
r 3.004193 17 18 tcp 1540 ------- 0 4.30 18.12 3 48
+ 3.004193 18 17 ack 40 ------- 0 18.12 4.30 3 52
- 3.004193 18 17 ack 40 ------- 0 18.12 4.30 3 52
r 3.004198 17 18 tcp 1540 ------- 0 4.30 18.12 4 49
+ 3.004198 18 17 ack 40 ------- 0 18.12 4.30 4 53
- 3.004198 18 17 ack 40 ------- 0 18.12 4.30 4 53
r 3.004203 17 18 tcp 1540 ------- 0 4.30 18.12 5 50
+ 3.004203 18 17 ack 40 ------- 0 18.12 4.30 5 54
- 3.004203 18 17 ack 40 ------- 0 18.12 4.30 5 54
r 3.004208 17 18 tcp 1540 ------- 0 4.30 18.12 6 51
+ 3.004208 18 17 ack 40 ------- 0 18.12 4.30 6 55
- 3.004208 18 17 ack 40 ------- 0 18.12 4.30 6 55
r 3.005174 18 17 ack 40 ------- 0 18.12 4.30 3 52
+ 3.005174 17 11 ack 40 ------- 0 18.12 4.30 3 52
- 3.005174 17 11 ack 40 ------- 0 18.12 4.30 3 52
r 3.005179 18 17 ack 40 ------- 0 18.12 4.30 4 53
+ 3.005179 17 11 ack 40 ------- 0 18.12 4.30 4 53
- 3.005179 17 11 ack 40 ------- 0 18.12 4.30 4 53
r 3.005184 18 17 ack 40 ------- 0 18.12 4.30 5 54
+ 3.005184 17 11 ack 40 ------- 0 18.12 4.30 5 54
- 3.005184 17 11 ack 40 ------- 0 18.12 4.30 5 54
r 3.005189 18 17 ack 40 ------- 0 18.12 4.30 6 55
+ 3.005189 17 11 ack 40 ------- 0 18.12 4.30 6 55
- 3.005189 17 11 ack 40 ------- 0 18.12 4.30 6 55
r 3.006911 17 11 ack 40 ------- 0 18.12 4.30 3 52
+ 3.006911 11 4 ack 40 ------- 0 18.12 4.30 3 52
- 3.006911 11 4 ack 40 ------- 0 18.12 4.30 3 52
r 3.006916 17 11 ack 40 ------- 0 18.12 4.30 4 53
+ 3.006916 11 4 ack 40 ------- 0 18.12 4.30 4 53
- 3.006916 11 4 ack 40 ------- 0 18.12 4.30 4 53
r 3.006921 17 11 ack 40 ------- 0 18.12 4.30 5 54
+ 3.006921 11 4 ack 40 ------- 0 18.12 4.30 5 54
- 3.006921 11 4 ack 40 ------- 0 18.12 4.30 5 54
r 3.006926 17 11 ack 40 ------- 0 18.12 4.30 6 55
+ 3.006926 11 4 ack 40 ------- 0 18.12 4.30 6 55
- 3.006926 11 4 ack 40 ------- 0 18.12 4.30 6 55
r 3.009371 11 4 ack 40 ------- 0 18.12 4.30 3 52
r 3.009376 11 4 ack 40 ------- 0 18.12 4.30 4 53
r 3.009381 11 4 ack 40 ------- 0 18.12 4.30 5 54
r 3.009386 11 4 ack 40 ------- 0 18.12 4.30 6 55
+ 3.553481 3 0 tcp 40 ------- 0 3.35 5.19 0 56
- 3.553481 3 0 tcp 40 ------- 0 3.35 5.19 0 56
r 3.555936 3 0 tcp 40 ------- 0 3.35 5.19 0 56
+ 3.555936 0 5 tcp 40 ------- 0 3.35 5.19 0 56
- 3.555936 0 5 tcp 40 ------- 0 3.35 5.19 0 56
r 3.557516 0 5 tcp 40 ------- 0 3.35 5.19 0 56
+ 3.557516 5 0 ack 40 ------- 0 5.19 3.35 0 57
- 3.557516 5 0 ack 40 ------- 0 5.19 3.35 0 57
r 3.559096 5 0 ack 40 ------- 0 5.19 3.35 0 57
+ 3.559096 0 3 ack 40 ------- 0 5.19 3.35 0 57
- 3.559096 0 3 ack 40 ------- 0 5.19 3.35 0 57
r 3.561551 0 3 ack 40 ------- 0 5.19 3.35 0 57
+ 3.561551 3 0 tcp 1540 ------- 0 3.35 5.19 1 58
- 3.561551 3 0 tcp 1540 ------- 0 3.35 5.19 1 58
+ 3.561551 3 0 tcp 1540 ------- 0 3.35 5.19 2 59
- 3.561552 3 0 tcp 1540 ------- 0 3.35 5.19 2 59
r 3.564006 3 0 tcp 1540 ------- 0 3.35 5.19 1 58
+ 3.564006 0 5 tcp 1540 ------- 0 3.35 5.19 1 58
- 3.564006 0 5 tcp 1540 ------- 0 3.35 5.19 1 58
r 3.564008 3 0 tcp 1540 ------- 0 3.35 5.19 2 59
+ 3.564008 0 5 tcp 1540 ------- 0 3.35 5.19 2 59
- 3.564011 0 5 tcp 1540 ------- 0 3.35 5.19 2 59
r 3.565591 0 5 tcp 1540 ------- 0 3.35 5.19 1 58
+ 3.565591 5 0 ack 40 ------- 0 5.19 3.35 1 60
- 3.565591 5 0 ack 40 ------- 0 5.19 3.35 1 60
r 3.565596 0 5 tcp 1540 ------- 0 3.35 5.19 2 59
+ 3.565596 5 0 ack 40 ------- 0 5.19 3.35 2 61
- 3.565596 5 0 ack 40 ------- 0 5.19 3.35 2 61
r 3.567171 5 0 ack 40 ------- 0 5.19 3.35 1 60
+ 3.567171 0 3 ack 40 ------- 0 5.19 3.35 1 60
- 3.567171 0 3 ack 40 ------- 0 5.19 3.35 1 60
r 3.567176 5 0 ack 40 ------- 0 5.19 3.35 2 61
+ 3.567176 0 3 ack 40 ------- 0 5.19 3.35 2 61
- 3.567176 0 3 ack 40 ------- 0 5.19 3.35 2 61
r 3.569626 0 3 ack 40 ------- 0 5.19 3.35 1 60
+ 3.569626 3 0 tcp 1540 ------- 0 3.35 5.19 3 62
- 3.569626 3 0 tcp 1540 ------- 0 3.35 5.19 3 62
+ 3.569626 3 0 tcp 1540 ------- 0 3.35 5.19 4 63
- 3.569627 3 0 tcp 1540 ------- 0 3.35 5.19 4 63
r 3.569631 0 3 ack 40 ------- 0 5.19 3.35 2 61
+ 3.569631 3 0 tcp 1540 ------- 0 3.35 5.19 5 64
- 3.569631 3 0 tcp 1540 ------- 0 3.35 5.19 5 64
+ 3.569631 3 0 tcp 1540 ------- 0 3.35 5.19 6 65
- 3.569632 3 0 tcp 1540 ------- 0 3.35 5.19 6 65
r 3.572082 3 0 tcp 1540 ------- 0 3.35 5.19 3 62
+ 3.572082 0 5 tcp 1540 ------- 0 3.35 5.19 3 62
- 3.572082 0 5 tcp 1540 ------- 0 3.35 5.19 3 62
r 3.572083 3 0 tcp 1540 ------- 0 3.35 5.19 4 63
+ 3.572083 0 5 tcp 1540 ------- 0 3.35 5.19 4 63
r 3.572086 3 0 tcp 1540 ------- 0 3.35 5.19 5 64
+ 3.572086 0 5 tcp 1540 ------- 0 3.35 5.19 5 64
- 3.572086 0 5 tcp 1540 ------- 0 3.35 5.19 4 63
r 3.572088 3 0 tcp 1540 ------- 0 3.35 5.19 6 65
+ 3.572088 0 5 tcp 1540 ------- 0 3.35 5.19 6 65
- 3.572091 0 5 tcp 1540 ------- 0 3.35 5.19 5 64
- 3.572096 0 5 tcp 1540 ------- 0 3.35 5.19 6 65
r 3.573666 0 5 tcp 1540 ------- 0 3.35 5.19 3 62
+ 3.573666 5 0 ack 40 ------- 0 5.19 3.35 3 66
- 3.573666 5 0 ack 40 ------- 0 5.19 3.35 3 66
r 3.573671 0 5 tcp 1540 ------- 0 3.35 5.19 4 63
+ 3.573671 5 0 ack 40 ------- 0 5.19 3.35 4 67
- 3.573671 5 0 ack 40 ------- 0 5.19 3.35 4 67
r 3.573676 0 5 tcp 1540 ------- 0 3.35 5.19 5 64
+ 3.573676 5 0 ack 40 ------- 0 5.19 3.35 5 68
- 3.573676 5 0 ack 40 ------- 0 5.19 3.35 5 68
r 3.573681 0 5 tcp 1540 ------- 0 3.35 5.19 6 65
+ 3.573681 5 0 ack 40 ------- 0 5.19 3.35 6 69
- 3.573681 5 0 ack 40 ------- 0 5.19 3.35 6 69
r 3.575246 5 0 ack 40 ------- 0 5.19 3.35 3 66
+ 3.575246 0 3 ack 40 ------- 0 5.19 3.35 3 66
- 3.575246 0 3 ack 40 ------- 0 5.19 3.35 3 66
r 3.575251 5 0 ack 40 ------- 0 5.19 3.35 4 67
+ 3.575251 0 3 ack 40 ------- 0 5.19 3.35 4 67
- 3.575251 0 3 ack 40 ------- 0 5.19 3.35 4 67
r 3.575256 5 0 ack 40 ------- 0 5.19 3.35 5 68
+ 3.575256 0 3 ack 40 ------- 0 5.19 3.35 5 68
- 3.575256 0 3 ack 40 ------- 0 5.19 3.35 5 68
r 3.575261 5 0 ack 40 ------- 0 5.19 3.35 6 69
+ 3.575261 0 3 ack 40 ------- 0 5.19 3.35 6 69
- 3.575261 0 3 ack 40 ------- 0 5.19 3.35 6 69
r 3.577701 0 3 ack 40 ------- 0 5.19 3.35 3 66
r 3.577706 0 3 ack 40 ------- 0 5.19 3.35 4 67
r 3.577711 0 3 ack 40 ------- 0 5.19 3.35 5 68
r 3.577716 0 3 ack 40 ------- 0 5.19 3.35 6 69
+ 3.708472 7 1 tcp 40 ------- 0 7.37 6.21 0 70
- 3.708472 7 1 tcp 40 ------- 0 7.37 6.21 0 70
r 3.717009 7 1 tcp 40 ------- 0 7.37 6.21 0 70
+ 3.717009 1 0 tcp 40 ------- 0 7.37 6.21 0 70
- 3.717009 1 0 tcp 40 ------- 0 7.37 6.21 0 70
r 3.719067 1 0 tcp 40 ------- 0 7.37 6.21 0 70
+ 3.719067 0 6 tcp 40 ------- 0 7.37 6.21 0 70
- 3.719067 0 6 tcp 40 ------- 0 7.37 6.21 0 70
r 3.720788 0 6 tcp 40 ------- 0 7.37 6.21 0 70
+ 3.720788 6 0 ack 40 ------- 0 6.21 7.37 0 71
- 3.720788 6 0 ack 40 ------- 0 6.21 7.37 0 71
r 3.722509 6 0 ack 40 ------- 0 6.21 7.37 0 71
+ 3.722509 0 1 ack 40 ------- 0 6.21 7.37 0 71
- 3.722509 0 1 ack 40 ------- 0 6.21 7.37 0 71
r 3.724567 0 1 ack 40 ------- 0 6.21 7.37 0 71
+ 3.724567 1 7 ack 40 ------- 0 6.21 7.37 0 71
- 3.724567 1 7 ack 40 ------- 0 6.21 7.37 0 71
r 3.733103 1 7 ack 40 ------- 0 6.21 7.37 0 71
+ 3.733103 7 1 tcp 1540 ------- 0 7.37 6.21 1 72
- 3.733103 7 1 tcp 1540 ------- 0 7.37 6.21 1 72
+ 3.733103 7 1 tcp 1540 ------- 0 7.37 6.21 2 73
- 3.733104 7 1 tcp 1540 ------- 0 7.37 6.21 2 73
r 3.741641 7 1 tcp 1540 ------- 0 7.37 6.21 1 72
+ 3.741641 1 0 tcp 1540 ------- 0 7.37 6.21 1 72
- 3.741641 1 0 tcp 1540 ------- 0 7.37 6.21 1 72
r 3.741642 7 1 tcp 1540 ------- 0 7.37 6.21 2 73
+ 3.741642 1 0 tcp 1540 ------- 0 7.37 6.21 2 73
- 3.741642 1 0 tcp 1540 ------- 0 7.37 6.21 2 73
r 3.7437 1 0 tcp 1540 ------- 0 7.37 6.21 1 72
+ 3.7437 0 6 tcp 1540 ------- 0 7.37 6.21 1 72
- 3.7437 0 6 tcp 1540 ------- 0 7.37 6.21 1 72
r 3.743702 1 0 tcp 1540 ------- 0 7.37 6.21 2 73
+ 3.743702 0 6 tcp 1540 ------- 0 7.37 6.21 2 73
- 3.743782 0 6 tcp 1540 ------- 0 7.37 6.21 2 73
r 3.745501 0 6 tcp 1540 ------- 0 7.37 6.21 1 72
+ 3.745501 6 0 ack 40 ------- 0 6.21 7.37 1 74
- 3.745501 6 0 ack 40 ------- 0 6.21 7.37 1 74
r 3.745583 0 6 tcp 1540 ------- 0 7.37 6.21 2 73
+ 3.745583 6 0 ack 40 ------- 0 6.21 7.37 2 75
- 3.745583 6 0 ack 40 ------- 0 6.21 7.37 2 75
r 3.747222 6 0 ack 40 ------- 0 6.21 7.37 1 74
+ 3.747222 0 1 ack 40 ------- 0 6.21 7.37 1 74
- 3.747222 0 1 ack 40 ------- 0 6.21 7.37 1 74
r 3.747304 6 0 ack 40 ------- 0 6.21 7.37 2 75
+ 3.747304 0 1 ack 40 ------- 0 6.21 7.37 2 75
- 3.747304 0 1 ack 40 ------- 0 6.21 7.37 2 75
r 3.74928 0 1 ack 40 ------- 0 6.21 7.37 1 74
+ 3.74928 1 7 ack 40 ------- 0 6.21 7.37 1 74
- 3.74928 1 7 ack 40 ------- 0 6.21 7.37 1 74
r 3.749362 0 1 ack 40 ------- 0 6.21 7.37 2 75
+ 3.749362 1 7 ack 40 ------- 0 6.21 7.37 2 75
- 3.749362 1 7 ack 40 ------- 0 6.21 7.37 2 75
r 3.757816 1 7 ack 40 ------- 0 6.21 7.37 1 74
+ 3.757816 7 1 tcp 1540 ------- 0 7.37 6.21 3 76
- 3.757816 7 1 tcp 1540 ------- 0 7.37 6.21 3 76
+ 3.757816 7 1 tcp 1540 ------- 0 7.37 6.21 4 77
- 3.757818 7 1 tcp 1540 ------- 0 7.37 6.21 4 77
r 3.757899 1 7 ack 40 ------- 0 6.21 7.37 2 75
+ 3.757899 7 1 tcp 1540 ------- 0 7.37 6.21 5 78
- 3.757899 7 1 tcp 1540 ------- 0 7.37 6.21 5 78
+ 3.757899 7 1 tcp 1540 ------- 0 7.37 6.21 6 79
- 3.7579 7 1 tcp 1540 ------- 0 7.37 6.21 6 79
r 3.766354 7 1 tcp 1540 ------- 0 7.37 6.21 3 76
+ 3.766354 1 0 tcp 1540 ------- 0 7.37 6.21 3 76
- 3.766354 1 0 tcp 1540 ------- 0 7.37 6.21 3 76
r 3.766355 7 1 tcp 1540 ------- 0 7.37 6.21 4 77
+ 3.766355 1 0 tcp 1540 ------- 0 7.37 6.21 4 77
- 3.766355 1 0 tcp 1540 ------- 0 7.37 6.21 4 77
r 3.766436 7 1 tcp 1540 ------- 0 7.37 6.21 5 78
+ 3.766436 1 0 tcp 1540 ------- 0 7.37 6.21 5 78
- 3.766436 1 0 tcp 1540 ------- 0 7.37 6.21 5 78
r 3.766437 7 1 tcp 1540 ------- 0 7.37 6.21 6 79
+ 3.766437 1 0 tcp 1540 ------- 0 7.37 6.21 6 79
- 3.766437 1 0 tcp 1540 ------- 0 7.37 6.21 6 79
r 3.768414 1 0 tcp 1540 ------- 0 7.37 6.21 3 76
+ 3.768414 0 6 tcp 1540 ------- 0 7.37 6.21 3 76
- 3.768414 0 6 tcp 1540 ------- 0 7.37 6.21 3 76
r 3.768415 1 0 tcp 1540 ------- 0 7.37 6.21 4 77